Program Version,EnergyPlus-Windows-64 8.0.0.008, YMD=2013.07.10 15:54
1,5,Environment Title[],Latitude[deg],Longitude[deg],Time Zone[],Elevation[m]
2,6,Day of Simulation[],Month[],Day of Month[],DST Indicator[1=yes 0=no],Hour[],StartMinute[],EndMinute[],DayType
3,3,Cumulative Day of Simulation[],Month[],Day of Month[],DST Indicator[1=yes 0=no],DayType  ! When Daily Meters Requested
4,2,Cumulative Days of Simulation[],Month[]  ! When Monthly Meters Requested
5,1,Cumulative Days of Simulation[] ! When Run Period Meters Requested
527,7,DistrictHeating:Facility [J] !Daily  [Value,Min,Hour,Minute,Max,Hour,Minute]
558,7,DistrictCooling:Facility [J] !Daily  [Value,Min,Hour,Minute,Max,Hour,Minute]
13,7,Electricity:Facility [J] !Daily  [Value,Min,Hour,Minute,Max,Hour,Minute]
528,9,DistrictHeating:Facility [J] !Monthly  [Value,Min,Day,Hour,Minute,Max,Day,Hour,Minute]
559,9,DistrictCooling:Facility [J] !Monthly  [Value,Min,Day,Hour,Minute,Max,Day,Hour,Minute]
14,9,Electricity:Facility [J] !Monthly  [Value,Min,Day,Hour,Minute,Max,Day,Hour,Minute]
529,11,DistrictHeating:Facility [J] !RunPeriod [Value,Min,Month,Day,Hour,Minute,Max,Month,Day,Hour,Minute]
560,11,DistrictCooling:Facility [J] !RunPeriod [Value,Min,Month,Day,Hour,Minute,Max,Month,Day,Hour,Minute]
15,11,Electricity:Facility [J] !RunPeriod [Value,Min,Month,Day,Hour,Minute,Max,Month,Day,Hour,Minute]
End of Data Dictionary
1,FINNINGLEY - GBR IWEC Data WMO#=033600,  53.48,  -1.00,   0.00,  17.00
3,1, 1, 1, 0,Sunday         
13,374180539.898225,0.0, 1,10,3783008.33191847, 7,10
527,2048416717.6772,6940750.16004517,12,30,16892905.3575655, 6,60
558,0.0,0.0, 1,10,0.0, 1,10
3,2, 1, 2, 0,Monday         
13,370956303.537002,0.0, 1,10,3783008.33191847, 7,10
527,2011386308.17953,7613279.79799992,12,40,17268233.5444673, 6,60
558,0.0,0.0, 1,10,0.0, 1,10
3,3, 1, 3, 0,Tuesday        
13,372751755.350588,0.0, 1,10,3783008.33191847, 7,10
527,2077355208.8344,7933091.73563591,12,40,17448425.7990228, 6,60
558,0.0,0.0, 1,10,0.0, 1,10
3,4, 1, 4, 0,Wednesday      
13,383825957.945206,0.0, 1,10,3783008.33191847, 7,10
527,2052166911.57259,12396856.5642404,14,60,17123650.9706526, 2,20
558,0.0,0.0, 1,10,0.0, 1,10
3,5, 1, 5, 0,Thursday       
13,383809015.573381,0.0, 1,10,3783008.33191847, 7,10
527,1834962453.20809,11321162.6767246,13,20,14814757.3508478, 5,10
558,0.0,0.0, 1,10,0.0, 1,10
3,6, 1, 6, 0,Friday         
13,369737980.194079,0.0, 1,10,3783008.33191847, 7,10
527,1509694578.67432,4371651.03853835,12,50,14768507.475035,24,60
558,0.0,0.0, 1,10,0.0, 1,10
3,7, 1, 7, 0,Saturday       
13,382799762.911507,0.0, 1,10,3783008.33191847, 7,10
527,1651283914.91034,8267346.40632929,23,60,15549942.760007, 2,60
558,0.0,0.0, 1,10,0.0, 1,10
3,8, 1, 8, 0,Sunday         
13,377216917.765963,0.0, 1,10,3783008.33191847, 7,10
527,1126222337.75674,3987100.66770159,12,50,10011168.4665517, 6,60
558,0.0,0.0, 1,10,0.0, 1,10
3,9, 1, 9, 0,Monday         
13,382171687.594485,0.0, 1,10,3783008.33191847, 7,10
527,1047140053.62758,5399756.71704418,20,60,9793206.94825907, 6,60
558,0.0,0.0, 1,10,0.0, 1,10
3,10, 1,10, 0,Tuesday        
13,382824108.094146,0.0, 1,10,3783008.33191847, 7,10
527,1181616575.57661,5560646.51606604,18,60,11126110.7969331,24,60
558,0.0,0.0, 1,10,0.0, 1,10
3,11, 1,11, 0,Wednesday      
13,369040314.86456,0.0, 1,10,3783008.33191847, 7,10
527,1488374549.17853,5022297.26396751,12,50,12879730.9327267, 6,60
558,0.0,0.0, 1,10,0.0, 1,10
3,12, 1,12, 0,Thursday       
13,370390855.372312,0.0, 1,10,3783008.33191847, 7,10
527,1555194564.72057,5007301.96494065,12,50,13327920.1115167, 5,60
558,0.0,0.0, 1,10,0.0, 1,10
3,13, 1,13, 0,Friday         
13,381895791.604931,0.0, 1,10,3783008.33191847, 7,10
527,1443802358.1348,7032514.70920051,14,20,14788504.8393665, 6,60
558,0.0,0.0, 1,10,0.0, 1,10
3,14, 1,14, 0,Saturday       
13,381834072.536386,0.0, 1,10,3783008.33191847, 7,10
527,1112784703.17551,5318799.66768203,15,60,10805654.2554357, 6,60
558,0.0,0.0, 1,10,0.0, 1,10
3,15, 1,15, 0,Sunday         
13,382594968.726635,0.0, 1,10,3783008.33191847, 7,10
527,1197351595.35669,5195774.41203672,14,60,12294115.9531168, 6,60
558,0.0,0.0, 1,10,0.0, 1,10
3,16, 1,16, 0,Monday         
13,383204806.761056,0.0, 1,10,3783008.33191847, 7,10
527,961582712.607325,5018863.2143281,15,30,11287434.246409,24,60
558,0.0,0.0, 1,10,0.0, 1,10
3,17, 1,17, 0,Tuesday        
13,383346275.667934,0.0, 1,10,3783008.33191847, 7,10
527,1394611781.388,6649315.50492965,16,60,13758554.8915394, 6,60
558,0.0,0.0, 1,10,0.0, 1,10
3,18, 1,18, 0,Wednesday      
13,366655345.699286,0.0, 1,10,3783008.33191847, 7,10
527,1386408661.64274,3942354.47193952,12,50,13857172.1737755,24,60
558,0.0,0.0, 1,10,0.0, 1,10
3,19, 1,19, 0,Thursday       
13,382664759.390731,0.0, 1,10,3783008.33191847, 7,10
527,1680601480.12087,9394338.92868918,19,60,14832805.1282382, 6,60
558,0.0,0.0, 1,10,0.0, 1,10
3,20, 1,20, 0,Friday         
13,376423788.429835,0.0, 1,10,3783008.33191847, 7,10
527,1574978940.63741,7356451.17927141,11,60,14397064.3404396, 5,10
558,0.0,0.0, 1,10,0.0, 1,10
3,21, 1,21, 0,Saturday       
13,382007721.549955,0.0, 1,10,3783008.33191847, 7,10
527,1559861900.3737,8472861.31840282,16,60,13571888.693817, 5,60
558,0.0,0.0, 1,10,0.0, 1,10
3,22, 1,22, 0,Sunday         
13,378851349.44668,0.0, 1,10,3783008.33191847, 7,10
527,1570456457.85455,7797304.4834158,12,20,13799815.0670711,24,60
558,0.0,0.0, 1,10,0.0, 1,10
3,23, 1,23, 0,Monday         
13,369627237.936746,0.0, 1,10,3783008.33191847, 7,10
527,1364293932.41686,3794046.23447602,12,40,13812625.8130131, 1,20
558,0.0,0.0, 1,10,0.0, 1,10
3,24, 1,24, 0,Tuesday        
13,380542739.056137,0.0, 1,10,3783008.33191847, 7,10
527,1425302944.13393,7315232.24126334,12,50,14065676.1897264,24,60
558,0.0,0.0, 1,10,0.0, 1,10
3,25, 1,25, 0,Wednesday      
13,382748098.318978,0.0, 1,10,3783008.33191847, 7,10
527,1939515249.32405,11615823.9412366,14,60,15417992.5047654,24,60
558,0.0,0.0, 1,10,0.0, 1,10
3,26, 1,26, 0,Thursday       
13,380312188.402406,0.0, 1,10,3783008.33191847, 7,10
527,2005026184.35682,11578424.2516652,14,20,16380191.918365,24,60
558,0.0,0.0, 1,10,0.0, 1,10
3,27, 1,27, 0,Friday         
13,382582083.492242,0.0, 1,10,3783008.33191847, 7,10
527,2184335555.53301,12048109.0582211,23,60,18449635.2289502, 6,60
558,0.0,0.0, 1,10,0.0, 1,10
3,28, 1,28, 0,Saturday       
13,380117852.571842,0.0, 1,10,3783008.33191847, 7,10
527,1499003167.51131,7543526.69480913,12,50,13687639.0778249, 6,30
558,0.0,0.0, 1,10,0.0, 1,10
3,29, 1,29, 0,Sunday         
13,380225584.829593,0.0, 1,10,3783008.33191847, 7,10
527,1404961096.44034,6359107.38802625,13,60,13270648.2655145,24,60
558,0.0,0.0, 1,10,0.0, 1,10
3,30, 1,30, 0,Monday         
13,360378557.931382,0.0, 1,10,3783008.33191847, 7,10
527,1593446790.89669,4808649.68139072,12,60,14747644.0786782, 6,60
558,0.0,0.0, 1,10,0.0, 1,10
3,31, 1,31, 0,Tuesday        
13,382349065.837294,0.0, 1,10,3783008.33191847, 7,10
527,1150611278.25496,4614702.09553488,19,60,13198930.5891018, 2,40
558,0.0,0.0, 1,10,0.0, 1,10
4,31, 1
14,11718067487.2917,0.0, 1, 1,10,3783008.33191847, 1, 7,10
528,48032750964.076,3794046.23447602,23,12,40,18449635.2289502,27, 6,60
559,0.0,0.0, 1, 1,10,0.0, 1, 1,10
3,32, 2, 1, 0,Wednesday      
13,364386213.471323,0.0, 1,10,3783008.33191847, 7,10
527,1976393747.20813,7286913.5960754,12,40,18903584.7287649, 6,60
558,0.0,0.0, 1,10,0.0, 1,10
3,33, 2, 2, 0,Thursday       
13,382060454.111051,0.0, 1,10,3783008.33191847, 7,10
527,1982394277.41558,12048715.9750865,13,20,15726947.3581323, 5,60
558,0.0,0.0, 1,10,0.0, 1,10
3,34, 2, 3, 0,Friday         
13,367746072.920904,0.0, 1,10,3783008.33191847, 7,10
527,1522942000.23664,5570040.76008877,12,30,14876363.8372755, 6,60
558,0.0,0.0, 1,10,0.0, 1,10
3,35, 2, 4, 0,Saturday       
13,375360429.556916,0.0, 1,10,3783008.33191847, 7,10
527,1497594158.12714,5669404.12538731,12,40,15441746.2704853, 5,60
558,0.0,0.0, 1,10,0.0, 1,10
3,36, 2, 5, 0,Sunday         
13,379689151.282966,0.0, 1,10,3783008.33191847, 7,10
527,981954167.795449,4306547.59600177,15,60,9813913.41365183, 4,60
558,0.0,0.0, 1,10,0.0, 1,10
3,37, 2, 6, 0,Monday         
13,373317651.097611,0.0, 1,10,3783008.33191847, 7,10
527,736515801.22948,2638569.09067819,12,40,7752180.08718484,24,60
558,0.0,0.0, 1,10,0.0, 1,10
3,38, 2, 7, 0,Tuesday        
13,379002849.046565,0.0, 1,10,3783008.33191847, 7,10
527,1102350407.71013,4848268.21788512,12,30,10364519.2377621, 6,60
558,0.0,0.0, 1,10,0.0, 1,10
3,39, 2, 8, 0,Wednesday      
13,379675772.294369,0.0, 1,10,3783008.33191847, 7,10
527,903115525.265332,3119393.98170077,14,40,9636768.57924034, 2,10
558,0.0,0.0, 1,10,0.0, 1,10
3,40, 2, 9, 0,Thursday       
13,381416258.180582,0.0, 1,10,3783008.33191847, 7,10
527,1030578228.99364,4350387.45855252,14,60,9865742.44270776, 5,10
558,0.0,0.0, 1,10,0.0, 1,10
3,41, 2,10, 0,Friday         
13,373740149.599399,0.0, 1,10,3783008.33191847, 7,10
527,1105627818.10606,4132246.1214871,15,20,11210117.0633647,24,60
558,0.0,0.0, 1,10,0.0, 1,10
3,42, 2,11, 0,Saturday       
13,376763145.731123,0.0, 1,10,3783008.33191847, 7,10
527,1399246916.63001,5943111.62619582,14,40,12603994.5525904, 6,60
558,0.0,0.0, 1,10,0.0, 1,10
3,43, 2,12, 0,Sunday         
13,380037271.778861,0.0, 1,10,3783008.33191847, 7,10
527,1596817142.85039,8383621.36459685,14,20,13669373.2907858,24,60
558,0.0,0.0, 1,10,0.0, 1,10
3,44, 2,13, 0,Monday         
13,376402466.384083,0.0, 1,10,3783008.33191847, 7,10
527,1748023157.14966,7715120.07970951,14,40,15161487.1248967, 6,60
558,0.0,0.0, 1,10,0.0, 1,10
3,45, 2,14, 0,Tuesday        
13,374754622.623103,0.0, 1,10,3783008.33191847, 7,10
527,1742897761.57412,7989236.08471069,15,10,15230394.4285912,24,60
558,0.0,0.0, 1,10,0.0, 1,10
3,46, 2,15, 0,Wednesday      
13,350797893.52564,0.0, 1,10,3783008.33191847, 7,10
527,1577152267.86255,4690247.2020895,13,60,16941913.415274, 6,60
558,0.0,0.0, 1,10,0.0, 1,10
3,47, 2,16, 0,Thursday       
13,376304952.520549,0.0, 1,10,3783008.33191847, 7,10
527,1821968400.29657,9577114.38216315,14,50,15384438.223191,24,60
558,0.0,0.0, 1,10,0.0, 1,10
3,48, 2,17, 0,Friday         
13,362091664.490487,0.0, 1,10,3783008.33191847, 7,10
527,1788243373.92119,6832974.03084867,12,50,16043378.6637543, 5,20
558,0.0,0.0, 1,10,0.0, 1,10
3,49, 2,18, 0,Saturday       
13,349790376.447271,0.0, 1,10,3783008.33191847, 7,10
527,1591003707.65098,5162484.74612091,13,60,16463024.3132942, 6,60
558,0.0,0.0, 1,10,0.0, 1,10
3,50, 2,19, 0,Sunday         
13,347486837.764525,0.0, 1,10,3783008.33191847, 7,10
527,1486955734.96982,4400312.42408796,13,60,16590184.3522873, 6,60
558,0.0,0.0, 1,10,0.0, 1,10
3,51, 2,20, 0,Monday         
13,349052363.282476,0.0, 1,10,3783008.33191847, 7,10
527,1545671711.33791,5133476.80846866,13,50,15367352.6764014, 6,20
558,0.0,0.0, 1,10,0.0, 1,10
3,52, 2,21, 0,Tuesday        
13,375013851.194324,0.0, 1,10,3783008.33191847, 7,10
527,1615199944.41148,6987674.62718841,14,30,15286915.5613413, 6,60
558,0.0,0.0, 1,10,0.0, 1,10
3,53, 2,22, 0,Wednesday      
13,375367254.84796,0.0, 1,10,3783008.33191847, 7,10
527,1389906567.50745,5914650.65967071,13,30,12678989.0978953, 5,60
558,0.0,0.0, 1,10,0.0, 1,10
3,54, 2,23, 0,Thursday       
13,378854604.189554,0.0, 1,10,3783008.33191847, 7,10
527,1613057371.15517,9146566.36959101,14,50,13643710.660143,24,60
558,0.0,0.0, 1,10,0.0, 1,10
3,55, 2,24, 0,Friday         
13,374459495.436761,0.0, 1,10,3783008.33191847, 7,10
527,1743696111.44977,8358986.24735476,13,60,15639311.6746656,24,60
558,0.0,0.0, 1,10,0.0, 1,10
3,56, 2,25, 0,Saturday       
13,369196945.837989,0.0, 1,10,3783008.33191847, 7,10
527,1870142860.2402,6945590.00002347,14,40,17620735.0782436, 6,60
558,0.0,0.0, 1,10,0.0, 1,10
3,57, 2,26, 0,Sunday         
13,379246257.884587,0.0, 1,10,3783008.33191847, 7,10
527,1720240616.47113,8299804.76721557,23,60,15314103.4811199, 6,60
558,0.0,0.0, 1,10,0.0, 1,10
3,58, 2,27, 0,Monday         
13,373823980.673763,0.0, 1,10,3783008.33191847, 7,10
527,856338764.043085,1792722.87700304,14,60,9836640.22432172, 5,60
558,0.0,0.0, 1,10,0.0, 1,10
3,59, 2,28, 0,Tuesday        
13,356573047.095435,0.0, 1,10,3783008.33191847, 7,10
527,658515520.071881,1193035.60975962,14,60,8657268.27726892,24,60
558,0.0,0.0, 1,10,0.0, 1,10
4,59, 2
14,10382412033.2703,0.0, 1, 1,10,3783008.33191847, 1, 7,10
528,40604544061.681,1193035.60975962,28,14,60,18903584.7287649, 1, 6,60
559,0.0,0.0, 1, 1,10,0.0, 1, 1,10
3,60, 3, 1, 0,Wednesday      
13,367083207.710714,0.0, 1,10,3783008.33191847, 7,10
527,1255641778.31929,4846739.34501099,11,60,12384694.1409488, 6,60
558,0.0,0.0, 1,10,0.0, 1,10
3,61, 3, 2, 0,Thursday       
13,378950279.385046,0.0, 1,10,3783008.33191847, 7,10
527,1448697845.55304,8283389.46167468,13,40,11898003.9687315,24,60
558,0.0,0.0, 1,10,0.0, 1,10
3,62, 3, 3, 0,Friday         
13,379087876.002974,0.0, 1,10,3783008.33191847, 7,10
527,1630747761.2029,9125961.40116509,13,60,13457345.9870517,24,60
558,0.0,0.0, 1,10,0.0, 1,10
3,63, 3, 4, 0,Saturday       
13,374123512.007184,0.0, 1,10,3783008.33191847, 7,10
527,1630417371.95681,7602596.78132324,14,30,14359496.0973714, 6,60
558,0.0,0.0, 1,10,0.0, 1,10
3,64, 3, 5, 0,Sunday         
13,372915323.958251,0.0, 1,10,3783008.33191847, 7,10
527,1088911612.98792,3337350.38788953,14,60,13302302.124636, 1,10
558,0.0,0.0, 1,10,0.0, 1,10
3,65, 3, 6, 0,Monday         
13,371666120.774444,0.0, 1,10,3783008.33191847, 7,10
527,1054509440.2376,2836889.49146674,15,60,11252735.7718336, 6,60
558,0.0,0.0, 1,10,0.0, 1,10
3,66, 3, 7, 0,Tuesday        
13,378020168.080936,0.0, 1,10,3783008.33191847, 7,10
527,1255391847.56003,6057344.97686768,16,10,12295355.6005857, 3,60
558,0.0,0.0, 1,10,0.0, 1,10
3,67, 3, 8, 0,Wednesday      
13,374705232.546974,0.0, 1,10,3783008.33191847, 7,10
527,1218534068.74452,3719999.60929821,14,60,13264796.396171,24,60
558,0.0,0.0, 1,10,0.0, 1,10
3,68, 3, 9, 0,Thursday       
13,340848554.244448,0.0, 1,10,3783008.33191847, 7,10
527,1197319553.78606,2894910.04317005,15,60,15738552.5785879, 6,60
558,0.0,0.0, 1,10,0.0, 1,10
3,69, 3,10, 0,Friday         
13,376261181.168853,0.0, 1,10,3783008.33191847, 7,10
527,1378286531.72822,6086937.14513335,14,60,13656710.3083478, 5,40
558,0.0,0.0, 1,10,0.0, 1,10
3,70, 3,11, 0,Saturday       
13,360616127.916074,0.0, 1,10,3783008.33191847, 7,10
527,1037326790.49195,2009320.32449471,16,60,12119529.1118578, 6,60
558,0.0,0.0, 1,10,0.0, 1,10
3,71, 3,12, 0,Sunday         
13,359215995.892424,0.0, 1,10,3783008.33191847, 7,10
527,834771031.309296,1208308.98895196,13,60,12756923.5692856, 6,60
558,0.0,0.0, 1,10,0.0, 1,10
3,72, 3,13, 0,Monday         
13,348785580.539334,0.0, 1,10,3783008.33191847, 7,10
527,485492257.824207,221036.550572763,15,60,8222645.64395724, 6,60
558,0.0,0.0, 1,10,0.0, 1,10
3,73, 3,14, 0,Tuesday        
13,359083449.11177,0.0, 1,10,3783008.33191847, 7,10
527,399708477.687361,510910.682208942,15,10,7447534.22331587, 6,60
558,0.0,0.0, 1,10,0.0, 1,10
3,74, 3,15, 0,Wednesday      
13,343824667.34193,0.0, 1,10,3783008.33191847, 7,10
527,348161195.624178,0.0,14,50,6903118.41505287, 4,30
558,0.0,0.0, 1,10,0.0, 1,10
3,75, 3,16, 0,Thursday       
13,373937757.606963,0.0, 1,10,3783008.33191847, 7,10
527,252447148.714045,1065956.30708516, 1,10,3591432.18139496,24,30
558,0.0,0.0, 1,10,0.0, 1,10
3,76, 3,17, 0,Friday         
13,369297815.803651,0.0, 1,10,3783008.33191847, 7,10
527,228748529.59726,266358.766113584,14,30,3554074.85810886, 4,60
558,0.0,0.0, 1,10,0.0, 1,10
3,77, 3,18, 0,Saturday       
13,365761151.887544,0.0, 1,10,3783008.33191847, 7,10
527,347532473.240976,849254.976870109, 9,60,6987393.46234211,24,60
558,0.0,0.0, 1,10,0.0, 1,10
3,78, 3,19, 0,Sunday         
13,338576998.425188,0.0, 1,10,3783008.33191847, 7,10
527,589535111.743951,1201504.42725697,14,60,9419888.90597162, 5,60
558,0.0,0.0, 1,10,0.0, 1,10
3,79, 3,20, 0,Monday         
13,357504875.162849,0.0, 1,10,3783008.33191847, 7,10
527,503292410.146456,1843297.40378138,16,60,5988529.13496137, 6,60
558,0.0,0.0, 1,10,0.0, 1,10
3,80, 3,21, 0,Tuesday        
13,368884231.370902,0.0, 1,10,3783008.33191847, 7,10
527,453051083.147304,1164727.08217651,16,60,5841696.21833134, 2,60
558,0.0,0.0, 1,10,0.0, 1,10
3,81, 3,22, 0,Wednesday      
13,361628369.442495,0.0, 1,10,3783008.33191847,19,20
527,695529285.742998,1351771.01885623,14,60,8217531.44706712,24,60
558,0.0,0.0, 1,10,0.0, 1,10
3,82, 3,23, 0,Thursday       
13,338312045.968781,0.0, 1,10,3783008.33191847,19,20
527,764151858.352633,1901602.14117982,15,60,9866511.41686784, 5,60
558,0.0,0.0, 1,10,0.0, 1,10
3,83, 3,24, 0,Friday         
13,344003200.098971,0.0, 1,10,3783008.33191847,19,20
527,688602167.096217,1865371.84802689,14,20,9100396.1303296, 6,60
558,0.0,0.0, 1,10,0.0, 1,10
3,84, 3,25, 0,Saturday       
13,348443684.911482,0.0, 1,10,3783008.33191847,19,20
527,797062581.948394,2412308.82607678,15,20,10546423.4547581, 6,60
558,0.0,0.0, 1,10,0.0, 1,10
3,85, 3,26, 0,Sunday         
13,334647917.430413,0.0, 1,10,3783008.33191847,19,30
527,944749996.920443,2059826.5383445,17,30,14369486.8349004, 6,60
558,0.0,0.0, 1,10,0.0, 1,10
3,86, 3,27, 0,Monday         
13,355561587.159765,0.0, 1,10,3783008.33191847,19,30
527,883679310.991969,2609550.16184588,13,60,12576324.3354589, 6,60
558,0.0,0.0, 1,10,0.0, 1,10
3,87, 3,28, 0,Tuesday        
13,371994356.526045,0.0, 1,10,3783008.33191847,19,30
527,959208382.975375,3200727.59656868,15,60,9762137.635275, 6,60
558,0.0,0.0, 1,10,0.0, 1,10
3,88, 3,29, 0,Wednesday      
13,368489234.857702,0.0, 1,10,3783008.33191847,19,30
527,887597971.954464,1716598.55713018,16,30,11375164.691333, 4,60
558,0.0,0.0, 1,10,0.0, 1,10
3,89, 3,30, 0,Thursday       
13,371496110.217602,0.0, 1,10,3783008.33191847,19,30
527,573477802.608114,1172984.62251605,17,40,7503121.83730333,24,60
558,0.0,0.0, 1,10,0.0, 1,10
3,90, 3,31, 0,Friday         
13,361763168.213346,0.0, 1,10,3783008.33191847,19,30
527,802277796.456406,1278989.52206035,12,60,12648413.0276614, 6,60
558,0.0,0.0, 1,10,0.0, 1,10
4,90, 3
14,11215489781.7652,0.0, 1, 1,10,3783008.33191847, 1, 7,10
528,26634861476.6505,0.0,15,14,50,15738552.5785879, 9, 6,60
559,0.0,0.0, 1, 1,10,0.0, 1, 1,10
3,91, 4, 1, 0,Saturday       
13,364526537.838577,0.0, 1,10,3783008.33191847,19,40
527,453318822.939496,866667.01646877,15,60,6824578.90770043, 6,40
558,0.0,0.0, 1,10,0.0, 1,10
3,92, 4, 2, 0,Sunday         
13,372606484.120127,0.0, 1,10,3783008.33191847,19,40
527,453313477.77069,957771.331397216,11,60,6878845.293132,24,60
558,0.0,0.0, 1,10,0.0, 1,10
3,93, 4, 3, 0,Monday         
13,337159603.416854,0.0, 1,10,3783008.33191847,19,40
527,599079592.520816,954658.800615388,17,40,9783409.52255397, 6,60
558,0.0,0.0, 1,10,0.0, 1,10
3,94, 4, 4, 0,Tuesday        
13,362151025.518372,0.0, 1,10,3783008.33191847,19,40
527,680642077.290639,1874432.22433846,16,60,7707824.87670474, 3,60
558,0.0,0.0, 1,10,0.0, 1,10
3,95, 4, 5, 0,Wednesday      
13,350443189.002745,0.0, 1,10,3783008.33191847,19,40
527,639716824.226692,1671162.26039821,13,60,9306918.42591324, 6,30
558,0.0,0.0, 1,10,0.0, 1,10
3,96, 4, 6, 0,Thursday       
13,366859027.460538,0.0, 1,10,3783008.33191847,19,50
527,770361037.309401,2353580.85581992,14,60,9942212.46297945, 6,60
558,0.0,0.0, 1,10,0.0, 1,10
3,97, 4, 7, 0,Friday         
13,334167885.349017,0.0, 1,10,3783008.33191847,19,50
527,512370944.052084,1064263.9776871,17,40,8053790.10960385, 6,30
558,0.0,0.0, 1,10,0.0, 1,10
3,98, 4, 8, 0,Saturday       
13,356279576.60334,0.0, 1,10,3783008.33191847,19,50
527,443632026.506316,867316.80485375,17,30,6373757.34437041,24,60
558,0.0,0.0, 1,10,0.0, 1,10
3,99, 4, 9, 0,Sunday         
13,351448291.096701,0.0, 1,10,3783008.33191847,19,50
527,392494050.306615,520595.249721091,17,30,7521730.62644121, 2,60
558,0.0,0.0, 1,10,0.0, 1,10
3,100, 4,10, 0,Monday         
13,372700323.050316,0.0, 1,10,3783008.33191847,19,50
527,235783435.033054,133048.806597769,14,60,4497187.42890237, 5,60
558,0.0,0.0, 1,10,0.0, 1,10
3,101, 4,11, 0,Tuesday        
13,364084407.699372,0.0, 1,10,3783008.33191847,19,50
527,137585722.716909,0.0,11,30,4004509.4972965, 6,30
558,0.0,0.0, 1,10,0.0, 1,10
3,102, 4,12, 0,Wednesday      
13,352600332.047304,0.0, 1,10,3783008.33191847,19,60
527,44655623.3034153,0.0,11,30,942579.79809624, 6,60
558,0.0,0.0, 1,10,0.0, 1,10
3,103, 4,13, 0,Thursday       
13,372354126.712056,0.0, 1,10,3783008.33191847,19,60
527,187641646.819774,436860.813870631, 1,10,5026275.81312851,24,60
558,0.0,0.0, 1,10,0.0, 1,10
3,104, 4,14, 0,Friday         
13,327701257.980694,0.0, 1,10,3783008.33191847,19,60
527,416308686.848273,518897.232808649,17,50,7057822.13395066, 6,30
558,0.0,0.0, 1,10,0.0, 1,10
3,105, 4,15, 0,Saturday       
13,349204443.555638,0.0, 1,10,3783008.33191847,19,60
527,294865078.073832,142611.067948404,17,50,3794710.83819702, 6,30
558,0.0,0.0, 1,10,0.0, 1,10
3,106, 4,16, 0,Sunday         
13,346662847.211718,0.0, 1,10,3783008.33191847,19,60
527,442762637.704967,1113703.46163677,13,60,6714988.03793498,24,60
558,0.0,0.0, 1,10,0.0, 1,10
3,107, 4,17, 0,Monday         
13,358584538.914465,0.0, 1,10,3783008.33191847,20,10
527,781566885.392786,2707761.7500777,17,30,9541721.09670472,24,60
558,0.0,0.0, 1,10,0.0, 1,10
3,108, 4,18, 0,Tuesday        
13,353761004.724793,0.0, 1,10,3783008.33191847,20,10
527,862017345.090324,1992169.8496325,14,60,10638368.3328591, 2,60
558,0.0,0.0, 1,10,0.0, 1,10
3,109, 4,19, 0,Wednesday      
13,340396356.530965,0.0, 1,10,3783008.33191847,20,10
527,946798265.298716,3098897.86344303,15,60,10271219.9833903,24,60
558,0.0,0.0, 1,10,0.0, 1,10
3,110, 4,20, 0,Thursday       
13,340647760.62983,0.0, 1,10,3783008.33191847,20,10
527,978303041.141002,3122048.5847985,14,60,12500773.5622604, 5,60
558,0.0,0.0, 1,10,0.0, 1,10
3,111, 4,21, 0,Friday         
13,356963043.056016,0.0, 1,10,3783008.33191847,20,10
527,894315992.670894,2033629.40784242,16,60,11859908.5657846, 6,30
558,0.0,0.0, 1,10,0.0, 1,10
3,112, 4,22, 0,Saturday       
13,331853663.505989,0.0, 1,10,3783008.33191847,20,10
527,668144989.612907,1431990.25443722,14,30,10456899.1525089, 5,50
558,0.0,0.0, 1,10,0.0, 1,10
3,113, 4,23, 0,Sunday         
13,359880173.561266,0.0, 1,10,3783008.33191847,20,20
527,511127055.665219,1021331.62599167,17,10,8965303.6501138, 5,60
558,0.0,0.0, 1,10,0.0, 1,10
3,114, 4,24, 0,Monday         
13,359635906.83168,0.0, 1,10,3783008.33191847,20,20
527,380878284.025417,396012.483248344,15,60,6469260.07269953, 5,60
558,0.0,0.0, 1,10,0.0, 1,10
3,115, 4,25, 0,Tuesday        
13,322339093.65527,0.0, 1,10,3783008.33191847,20,20
527,333685616.647642,69224.3333285291,17,30,6530522.62977498, 5,60
558,0.0,0.0, 1,10,0.0, 1,10
3,116, 4,26, 0,Wednesday      
13,330014731.893805,0.0, 1,10,3783008.33191847,20,20
527,310723360.19667,0.0,17,20,5041636.97139348, 6,60
558,0.0,0.0, 1,10,0.0, 1,10
3,117, 4,27, 0,Thursday       
13,327451791.625363,0.0, 1,10,3783008.33191847,20,20
527,290051952.885119,35474.588052139,17,50,3994318.55139753, 6,60
558,0.0,0.0, 1,10,0.0, 1,10
3,118, 4,28, 0,Friday         
13,321505741.540204,0.0, 1,10,3783008.33191847,20,20
527,266454792.115192,0.0,14,60,5006698.13589872, 5,60
558,985393.961953012,0.0, 1,10,239711.531187395,14,60
3,119, 4,29, 0,Saturday       
13,370110815.486089,0.0, 1,10,3783008.33191847,20,30
527,328939420.321382,745047.013257983,12,20,4264584.58496095,24,60
558,0.0,0.0, 1,10,0.0, 1,10
3,120, 4,30, 0,Sunday         
13,367664605.85017,0.0, 1,10,3783008.33191847,20,30
527,543060492.997521,2052192.439766,15,60,5826344.10250319,24,30
558,0.0,0.0, 1,10,0.0, 1,10
4,120, 4
14,10521758586.4693,0.0, 1, 1,10,3783008.33191847, 1,19,40
528,14800599177.4838,0.0,11,11,30,12500773.5622604,20, 5,60
559,985393.961953012,0.0, 1, 1,10,239711.531187395,28,14,60
3,121, 5, 1, 0,Monday         
13,357376671.780447,0.0, 1,10,3783008.33191847,20,30
527,396856728.480879,378716.052019406,16,60,5958789.7777207, 1,30
558,0.0,0.0, 1,10,0.0, 1,10
3,122, 5, 2, 0,Tuesday        
13,346474672.490051,0.0, 1,10,3783008.33191847,20,30
527,298072254.773683,0.0,17,60,5909586.69763274, 4,40
558,0.0,0.0, 1,10,0.0, 1,10
3,123, 5, 3, 0,Wednesday      
13,357295436.552465,0.0, 1,10,3783008.33191847,20,30
527,196907775.999149,0.0,13,50,3629983.6973083, 6,30
558,0.0,0.0, 1,10,0.0, 1,10
3,124, 5, 4, 0,Thursday       
13,360996307.301397,0.0, 1,10,3783008.33191847,20,40
527,170499365.687612,0.0,14,20,3070246.14836728, 5,60
558,0.0,0.0, 1,10,0.0, 1,10
3,125, 5, 5, 0,Friday         
13,341327321.445874,0.0, 1,10,3783008.33191847,20,40
527,148361272.83006,0.0,11,20,4745940.81699231, 5,30
558,0.0,0.0, 1,10,0.0, 1,10
3,126, 5, 6, 0,Saturday       
13,318058123.383045,0.0, 1,10,3783008.33191847,20,40
527,103421934.886862,0.0, 9,50,3363271.55968519, 5,30
558,0.0,0.0, 1,10,0.0, 1,10
3,127, 5, 7, 0,Sunday         
13,342895242.497239,0.0, 1,10,3783008.33191847,20,40
527,3284755.9666748,0.0, 1,10,261951.674271944, 5,60
558,0.0,0.0, 1,10,0.0, 1,10
3,128, 5, 8, 0,Monday         
13,369344900.416401,0.0, 1,10,3783008.33191847,20,40
527,196475.291458117,0.0, 1,10,81832.6982034782,24,60
558,0.0,0.0, 1,10,0.0, 1,10
3,129, 5, 9, 0,Tuesday        
13,365538188.833947,0.0, 1,10,3783008.33191847,20,40
527,30265412.5134895,0.0,12,60,965868.821123547,24,60
558,0.0,0.0, 1,10,0.0, 1,10
3,130, 5,10, 0,Wednesday      
13,318020938.691399,0.0, 1,10,3783008.33191847,20,50
527,83701083.1416866,0.0,11,50,2248935.93227311, 5,60
558,0.0,0.0, 1,10,0.0, 1,10
3,131, 5,11, 0,Thursday       
13,368978746.793361,0.0, 1,10,3783008.33191847,20,50
527,58234314.770097,0.0,13,40,967778.014322601,24,60
558,0.0,0.0, 1,10,0.0, 1,10
3,132, 5,12, 0,Friday         
13,347015617.446162,0.0, 1,10,3783008.33191847,20,50
527,64715924.4896443,0.0,10,40,1697608.27262818, 6,30
558,0.0,0.0, 1,10,0.0, 1,10
3,133, 5,13, 0,Saturday       
13,360265238.667072,0.0, 1,10,3783008.33191847,20,50
527,44772760.9819308,0.0,11,30,1157149.48290014, 6,60
558,0.0,0.0, 1,10,0.0, 1,10
3,134, 5,14, 0,Sunday         
13,316910989.566993,0.0, 1,10,3783008.33191847,20,50
527,40972385.1246581,0.0, 9,30,1358751.74189035, 5,60
558,106923.793563513,0.0, 1,10,59552.3475789388,14,50
3,135, 5,15, 0,Monday         
13,322717588.058394,0.0, 1,10,3783008.33191847,20,50
527,2533670.53480209,0.0, 1,10,179611.032143979, 5,60
558,19123052.684127,0.0, 1,10,1589194.90892498,13,30
3,136, 5,16, 0,Tuesday        
13,315381507.784895,0.0, 1,10,3783008.33191847,20,60
527,0.0,0.0, 1,10,0.0, 1,10
558,84101980.4186105,0.0, 1,10,3574413.51281518,14,40
3,137, 5,17, 0,Wednesday      
13,367910463.250462,0.0, 1,10,3783008.33191847,20,60
527,1894007.4130431,0.0, 1,10,380544.084272678,24,60
558,0.0,0.0, 1,10,0.0, 1,10
3,138, 5,18, 0,Thursday       
13,339710350.609545,0.0, 1,10,3783008.33191847,20,60
527,93717091.5432727,0.0,11,40,1987480.07627148, 5,60
558,0.0,0.0, 1,10,0.0, 1,10
3,139, 5,19, 0,Friday         
13,347743314.273007,0.0, 1,10,3783008.33191847,20,60
527,147994875.935105,0.0,16,30,2890539.720367, 5,60
558,0.0,0.0, 1,10,0.0, 1,10
3,140, 5,20, 0,Saturday       
13,321792528.908088,0.0, 1,10,3783008.33191847,20,60
527,143247744.795708,0.0,12,60,3920332.71320068, 4,60
558,0.0,0.0, 1,10,0.0, 1,10
3,141, 5,21, 0,Sunday         
13,317437345.041075,0.0, 1,10,3783008.33191847,20,60
527,107913039.49198,0.0,11,20,3268472.44141094, 5,60
558,0.0,0.0, 1,10,0.0, 1,10
3,142, 5,22, 0,Monday         
13,312745589.022263,0.0, 1,10,3783008.33191847,20,60
527,6567465.53965537,0.0, 1,10,381275.642355201, 5,60
558,10296443.8596692,0.0, 1,10,899513.69933006,14,40
3,143, 5,23, 0,Tuesday        
13,356696679.287019,0.0, 1,10,3783008.33191847,21,10
527,1887445.63454641,0.0, 1,10,255384.525394414, 5,10
558,0.0,0.0, 1,10,0.0, 1,10
3,144, 5,24, 0,Wednesday      
13,352534387.635591,0.0, 1,10,3783008.33191847,21,10
527,0.0,0.0, 1,10,0.0, 1,10
558,0.0,0.0, 1,10,0.0, 1,10
3,145, 5,25, 0,Thursday       
13,362175405.354656,0.0, 1,10,3783008.33191847,21,10
527,0.0,0.0, 1,10,0.0, 1,10
558,0.0,0.0, 1,10,0.0, 1,10
3,146, 5,26, 0,Friday         
13,366687337.600273,0.0, 1,10,3783008.33191847,21,10
527,17459825.0346557,0.0, 1,10,886252.938802734,24,60
558,0.0,0.0, 1,10,0.0, 1,10
3,147, 5,27, 0,Saturday       
13,320456205.617753,0.0, 1,10,3783008.33191847,21,10
527,87465123.250508,0.0, 9,60,3205939.22301669, 5,30
558,0.0,0.0, 1,10,0.0, 1,10
3,148, 5,28, 0,Sunday         
13,316870326.331286,0.0, 1,10,3783008.33191847,21,10
527,445068.868416343,0.0, 1,10,90204.8059445537, 5,60
558,0.0,0.0, 1,10,0.0, 1,10
3,149, 5,29, 0,Monday         
13,351402016.674414,0.0, 1,10,3783008.33191847,21,10
527,0.0,0.0, 1,10,0.0, 1,10
558,0.0,0.0, 1,10,0.0, 1,10
3,150, 5,30, 0,Tuesday        
13,352989347.764803,0.0, 1,10,3783008.33191847,21,20
527,0.0,0.0, 1,10,0.0, 1,10
558,0.0,0.0, 1,10,0.0, 1,10
3,151, 5,31, 0,Wednesday      
13,356104161.804087,0.0, 1,10,3783008.33191847,21,20
527,0.0,0.0, 1,10,0.0, 1,10
558,0.0,0.0, 1,10,0.0, 1,10
4,151, 5
14,10651852950.8835,0.0, 1, 1,10,3783008.33191847, 1,20,30
528,2251387802.97958,0.0, 2,17,60,5958789.7777207, 1, 1,30
559,113628400.75597,0.0, 1, 1,10,3574413.51281518,16,14,40
3,152, 6, 1, 0,Thursday       
13,347583794.707655,0.0, 1,10,3783008.33191847,21,20
527,0.0,0.0, 1,10,0.0, 1,10
558,0.0,0.0, 1,10,0.0, 1,10
3,153, 6, 2, 0,Friday         
13,354144695.417583,0.0, 1,10,3783008.33191847,21,20
527,0.0,0.0, 1,10,0.0, 1,10
558,0.0,0.0, 1,10,0.0, 1,10
3,154, 6, 3, 0,Saturday       
13,367494769.429319,0.0, 1,10,3783008.33191847,21,20
527,13609409.4574659,0.0, 1,10,669464.459995462, 4,60
558,0.0,0.0, 1,10,0.0, 1,10
3,155, 6, 4, 0,Sunday         
13,352214734.063932,0.0, 1,10,3783008.33191847,21,20
527,16098226.3749189,0.0, 7,40,583127.513930439, 5,10
558,0.0,0.0, 1,10,0.0, 1,10
3,156, 6, 5, 0,Monday         
13,356188841.017744,0.0, 1,10,3783008.33191847,21,20
527,14618881.761058,0.0, 8,10,547510.612892994, 5,30
558,0.0,0.0, 1,10,0.0, 1,10
3,157, 6, 6, 0,Tuesday        
13,351105734.072355,0.0, 1,10,3783008.33191847,21,20
527,0.0,0.0, 1,10,0.0, 1,10
558,0.0,0.0, 1,10,0.0, 1,10
3,158, 6, 7, 0,Wednesday      
13,319467782.672886,0.0, 1,10,3783008.33191847,21,20
527,0.0,0.0, 1,10,0.0, 1,10
558,0.0,0.0, 1,10,0.0, 1,10
3,159, 6, 8, 0,Thursday       
13,353616633.325028,0.0, 1,10,3783008.33191847,21,30
527,0.0,0.0, 1,10,0.0, 1,10
558,0.0,0.0, 1,10,0.0, 1,10
3,160, 6, 9, 0,Friday         
13,340727987.435479,0.0, 1,10,3783008.33191847,21,30